15
Properties=species:S:1:pos:R:3:forces:R:3:energies:R:1 energy=-6362.534530064353 stress="-3.2630006280194056e-08 -8.242227348491286e-08 9.235588062193688e-08 -8.242227348491286e-08 5.25204056338569e-08 -9.25673217274968e-09 9.235588062193688e-08 -9.25673217274968e-09 1.3402213502615626e-08" free_energy=-6362.534530064353 pbc="F F F"
C       -1.50672057       0.96283334      -0.21445428      -0.00061031       0.00413887      -0.00634230   -1037.58042845
C       -0.84917065      -0.08766558       0.67263330       0.00809331      -0.01782051       0.00140654   -1037.73008949
C        0.17852721      -0.95261349      -0.05314318       0.02729268      -0.00119257      -0.00764658   -1037.70172370
C        1.38370761      -0.18812485      -0.57946617       0.01571228       0.00174623       0.00665657   -1037.75956084
O        2.07908026       0.51932427       0.44221399      -0.00997672       0.00517448       0.00000818   -2047.94551788
H       -1.95933789       0.50856917      -1.09614618       0.00090384      -0.02286941      -0.01443706     -16.39700437
H       -2.29225136       1.49025699       0.32316515      -0.01234394       0.00872964       0.01733645     -16.38655087
H       -0.78888576       1.70753756      -0.55194041       0.03122486      -0.00181178      -0.01006657     -16.39998314
H       -1.61660423      -0.74112983       1.08827395      -0.02235990      -0.00031334       0.01261033     -16.36033166
H       -0.36451862       0.40243245       1.51676942      -0.00442279       0.00893254       0.00311504     -16.37765306
H        0.53837221      -1.73316202       0.62322393      -0.02070537      -0.00772140       0.00702138     -16.36940638
H       -0.29305889      -1.47094903      -0.89228259      -0.00215763       0.02287106      -0.00149784     -16.38024656
H        2.05994046      -0.87779405      -1.09309180      -0.00154262       0.01561623      -0.00564307     -16.30797915
H        1.08355396       0.56888858      -1.30189603      -0.01157221      -0.01423880       0.02531484     -16.31609403
H        2.34736627      -0.10840352       1.11614091       0.00246452      -0.00124123      -0.02783592     -16.52196048
