14
Properties=species:S:1:pos:R:3:forces:R:3:energies:R:1 energy=-27293.88549670695 stress="1.0432733605749179e-07 1.0861811588615941e-08 -3.654435354503549e-10 1.0861811588615941e-08 7.075335479469597e-08 2.1516529693032033e-08 -3.654435354503549e-10 2.1516529693032033e-08 6.602777700353037e-08" free_energy=-27293.88549670695 pbc="F F F"
O        2.46826381       0.77630688       0.52256650      -0.01081237       0.00005632       0.02362146   -2048.33356305
C        1.84064433       0.15353498      -0.47450791       0.01102713      -0.02602402       0.01737141   -1037.83448761
O        2.32900782      -0.60114652      -1.25645684      -0.02369593       0.02235596      -0.00125631   -2048.31567874
C        0.33389115       0.52019492      -0.49923221       0.00165407      -0.02367426       0.01621311   -1038.09593430
F        0.13818092       1.73840614       0.04161653      -0.00984109      -0.01689274      -0.04260515   -2718.29924428
F       -0.07712850       0.53788480      -1.77810747       0.01958104       0.01148420       0.02631768   -2718.30897276
C       -0.51059973      -0.52064267       0.28780813      -0.01685613       0.01991355      -0.00928532   -1038.05315501
F       -0.06663472      -0.54803449       1.56081577       0.00635571       0.00984149      -0.03183579   -2718.31889925
F       -0.32009815      -1.73227617      -0.26218808       0.01385632       0.03326482       0.00607399   -2718.30766306
C       -2.04150632      -0.25432495       0.32316748      -0.02149343       0.00117302       0.00296133   -1038.23821058
F       -2.62832948      -1.22504200       1.02209199       0.01316514      -0.02344017       0.00936721   -2718.41808934
F       -2.54746939      -0.25080227      -0.90697854       0.00496949      -0.00579088      -0.00848599   -2718.43001895
F       -2.31132243       0.91020366       0.90733447       0.02028224       0.00918074       0.00903467   -2718.43028239
H        3.39310070       0.49573766       0.51207018      -0.00819220      -0.01144804      -0.01749230     -16.50129739
