30
Properties=species:S:1:pos:R:3:forces:R:3:energies:R:1 energy=-71513.66625345498 stress="-6.314410535335e-08 -3.6944471211912453e-09 -1.7897417638248036e-08 -3.6944471211912453e-09 1.2632975601904243e-08 -8.503501221574132e-09 -1.7897417638248036e-08 -8.503501221574132e-09 6.701198172005525e-09" free_energy=-71513.66625345498 pbc="F F F"
O        5.61357363      -1.07324803      -0.99902564       0.00082746      -0.00893759       0.02468007   -2047.81790630
S        4.11199806      -1.20778619      -0.53111062      -0.01180737      -0.00567786      -0.01087024  -10837.93637260
O        3.39980685      -1.80398174      -1.59732522      -0.03946337       0.01593682      -0.00513061   -2047.99803204
O        4.07963431      -1.67448971       0.81104313       0.01221034       0.03058023       0.00576289   -2048.06771355
C        3.66322931       0.59157410      -0.51348415       0.02249836      -0.00415979      -0.01294997   -1037.75363591
F        4.67559202       1.22981558       0.10714269       0.00322955      -0.00498032       0.02446273   -2718.18803748
F        3.60768276       1.01064834      -1.77828367      -0.00610653       0.00812730      -0.01191091   -2718.21808348
C        2.35733626       1.01823439       0.24394765       0.02476456       0.00022426      -0.00162161   -1038.06741917
F        2.56078425       0.83471512       1.55451859       0.02039012      -0.02376647       0.00003416   -2718.28020195
F        2.22236947       2.33527292       0.00183206      -0.03417011       0.00647293       0.02984191   -2718.27005716
C        1.06013487       0.28298248      -0.19642475       0.01764691      -0.01808958      -0.00739840   -1038.07255644
F        1.22220999      -1.02057473       0.08722182       0.02553258      -0.02234744      -0.01704348   -2718.23052614
F        0.93366918       0.44104329      -1.52336356      -0.00877255      -0.01402350      -0.00635634   -2718.28971856
C       -0.24698312       0.76442999       0.51455181      -0.00802171      -0.00642917      -0.00767262   -1038.05406955
F       -0.08182662       0.59175459       1.83553167      -0.00651871      -0.01810555      -0.00864892   -2718.29104006
F       -0.43893759       2.06880066       0.25794773       0.02603156      -0.00003375      -0.00086552   -2718.30306665
C       -1.52521277      -0.01003322       0.04977016      -0.03350895       0.01278820      -0.00213804   -1038.03740494
F       -1.37740766      -1.31841888       0.32092650       0.00924659       0.02213723      -0.00670122   -2718.30686535
F       -1.65240420       0.15738633      -1.27944976      -0.00726193      -0.01964157      -0.00822100   -2718.28490062
C       -2.85071039       0.47285593       0.70937510      -0.03144000      -0.00183259       0.00424903   -1038.07059370
F       -2.69897811       0.48728124       2.04569151      -0.00249837       0.01485288       0.00520790   -2718.27460091
F       -3.12087065       1.72016451       0.29249567       0.00198807      -0.00313404      -0.01274467   -2718.28690502
C       -4.11781003      -0.41290445       0.43996040      -0.01675838       0.00349478      -0.00508822   -1038.04019638
F       -3.97519137      -1.58876314       1.07166272       0.00908686       0.00682312      -0.00991674   -2718.29513151
F       -5.14652509       0.25026557       0.99974461       0.00573448       0.02542165       0.00332442   -2718.26875344
C       -4.51507981      -0.70978156      -1.03469864      -0.00979429       0.00167367      -0.00199768   -1038.23959664
F       -5.73272778      -1.24646369      -1.04352112       0.00099716      -0.02825726       0.00055423   -2718.40974843
F       -4.53625858       0.40699850      -1.75844849       0.01507512       0.01984134       0.01800311   -2718.43411194
F       -3.66766301      -1.57424413      -1.58795131      -0.01087857      -0.01116459       0.01922631   -2718.42246413
H        6.17656583      -1.02353407      -0.21461854       0.03174112       0.02220667       0.00192944     -16.45654340
