20
Properties=species:S:1:pos:R:3:forces:R:3:energies:R:1 energy=-10519.946596286098 stress="1.1100301777971109e-07 1.1433361612564425e-08 -2.706456920751989e-08 1.1433361612564425e-08 4.922516744054167e-08 -9.06255544256623e-09 -2.706456920751989e-08 -9.06255544256623e-09 2.5728966962076026e-08" free_energy=-10519.946596286098 pbc="F F F"
C       -2.25184794       0.55133425       0.85422189       0.01067628      -0.00407523      -0.01026019   -1037.58704592
C       -1.82780593      -0.64547975       0.00903349       0.00952171       0.00373457       0.00116957   -1037.72061530
C       -0.94412590      -0.27856110      -1.18403093      -0.01295699      -0.00271138       0.00184271   -1037.70701505
C        0.36840597       0.42649358      -0.84620845      -0.02790501      -0.01433341      -0.00256826   -1037.76364700
C        1.28963883      -0.40266219       0.03756567      -0.02061197       0.00338124      -0.00899577   -1037.76107408
C        2.62768087       0.25366173       0.24550275      -0.01341560       0.00978253      -0.00003631   -1038.02335107
O        2.95054520       1.33908110      -0.15652298       0.01777481      -0.00690068       0.00839243   -2048.35363835
O        3.46994640      -0.52637104       0.96155176      -0.01545870      -0.00858018       0.00054387   -2048.36842771
H       -1.40100118       1.01983332       1.34763916       0.00421960      -0.00490010      -0.00998861     -16.39896034
H       -2.95771346       0.25313340       1.62830912       0.01851708       0.01036160      -0.00315365     -16.38759888
H       -2.73394680       1.31127447       0.23837637       0.00241182      -0.00831519      -0.00159030     -16.39521952
H       -2.71900130      -1.14800105      -0.37078595       0.01656631       0.00007489       0.01147736     -16.35453717
H       -1.31986480      -1.37724628       0.64012905       0.01118302       0.00829402      -0.00289977     -16.37532112
H       -1.51571064       0.36931109      -1.85182970       0.00098498      -0.00905932      -0.00327118     -16.36629854
H       -0.72436087      -1.18575007      -1.75199843       0.00153819       0.01025704       0.00245318     -16.37133225
H        0.17679160       1.38553252      -0.36607275      -0.00403442      -0.02301041       0.00319808     -16.38998551
H        0.89378819       0.66041212      -1.77175298      -0.00710506       0.00822909       0.02224500     -16.36776529
H        0.85913975      -0.58028206       1.02438471       0.00447143       0.02365408       0.00096114     -16.38633400
H        1.46463484      -1.39362082      -0.38536620       0.01328066       0.01465410      -0.01613982     -16.38738937
H        4.29480717      -0.03209323       1.04694740      -0.00965814      -0.01053724       0.00662052     -16.48103985
