26
Properties=species:S:1:pos:R:3:forces:R:3:energies:R:1 energy=-8596.284917056537 stress="-3.3330786957375996e-08 1.0194651412431965e-08 -2.96800266443257e-09 1.0194651412431965e-08 1.1145589313763876e-08 -5.0150733445053e-09 -2.96800266443257e-09 -5.0150733445053e-09 -2.805014196364925e-08" free_energy=-8596.284917056537 pbc="F F F"
C       -4.06848259       0.21396053      -0.44350114      -0.02094372       0.00890370      -0.00510409   -1037.57575791
C       -2.95241758      -0.63246268       0.15346396      -0.02080300       0.00984445      -0.00675529   -1037.72254505
C       -1.56784070      -0.16077327      -0.26842462       0.00802585      -0.01266373       0.01257130   -1037.72651815
C       -0.45363833      -1.01066913       0.32877414       0.02349546      -0.00973229      -0.00373181   -1037.71136828
C        0.94752578      -0.64333107      -0.15226414      -0.00126777      -0.01172634       0.00357954   -1037.72579053
C        1.41079416       0.73993437       0.29189197      -0.00220778      -0.00095499       0.00002473   -1037.72198711
C        2.81536238       1.10449292      -0.18318880      -0.00003991       0.00819413      -0.00182370   -1037.70926609
C        3.91773151       0.23815769       0.41726551       0.01010739      -0.00591588       0.00414818   -1037.58035861
H       -3.97074394       1.25607443      -0.13630863      -0.01254373      -0.02018385      -0.00182183     -16.39249855
H       -5.05158893      -0.13793633      -0.13158503       0.02380856       0.01816185      -0.01432000     -16.39501698
H       -4.03204663       0.18828487      -1.53347388      -0.01109996      -0.00229317       0.02045820     -16.39243186
H       -3.01763444      -0.61553727       1.24342663      -0.00793801       0.00099627       0.00716924     -16.36768682
H       -3.07960521      -1.67547737      -0.14369280      -0.00950148      -0.00488219      -0.00168421     -16.36735772
H       -1.49523776      -0.18390879      -1.35898657      -0.00049890      -0.00421168      -0.02342607     -16.37628991
H       -1.44488179       0.88298635       0.02460715       0.00288901       0.01701500       0.00310700     -16.37733409
H       -0.49178455      -0.93650112       1.41892315       0.00430126      -0.00630463       0.00889282     -16.37924781
H       -0.65059799      -2.05773281       0.08659147       0.01007507       0.00362575       0.00836416     -16.36422670
H        1.65031228      -1.39449822       0.21091661      -0.00067750       0.01020307      -0.00860295     -16.36981418
H        0.97552221      -0.69610346      -1.24406325       0.01063810      -0.00313101      -0.01728909     -16.37877420
H        0.71035531       1.49132967      -0.07481099       0.00776739      -0.00620516       0.00351107     -16.36691254
H        1.37700325       0.79335609       1.38322972      -0.00276531       0.00371193       0.03017832     -16.37745506
H        2.84988354       1.03607250      -1.27257928       0.00662495       0.00459680      -0.01585344     -16.37152048
H        3.01050870       2.14924538       0.06451032       0.00008043      -0.00758974      -0.00331898     -16.35900120
H        3.87158552       0.25373015       1.50703950       0.00596369       0.00908290      -0.00543190     -16.39372388
H        4.90274848       0.59744619       0.12046262      -0.02026348      -0.01815572       0.00696978     -16.38731163
H        3.83716733      -0.80013961       0.09845743      -0.00322662       0.01961453       0.00018903     -16.39472172
