26
Properties=species:S:1:pos:R:3:forces:R:3:energies:R:1 energy=-57234.755348603685 stress="-5.8134772454666545e-08 -4.0668623713853865e-08 6.749373211344878e-08 -4.0668623713853865e-08 -5.707980926176774e-09 2.996430252768213e-08 6.749373211344878e-08 2.996430252768213e-08 -4.618465365515969e-08" free_energy=-57234.755348603685 pbc="F F F"
F       -3.24093542       2.15220121      -0.24420923      -0.01808310      -0.00532587       0.01013481   -2718.42582138
C       -3.65361840       0.94099275      -0.61022897       0.02047605      -0.01959320      -0.00249926   -1038.23537805
F       -4.66314636       0.56855361       0.16927391       0.01528541      -0.01314611       0.01239099   -2718.43145835
F       -4.08720516       1.00191028      -1.86843569      -0.00155436      -0.01835801      -0.00074099   -2718.41291516
C       -2.47522930      -0.08072637      -0.55476793      -0.00006897       0.02419351      -0.00838891   -1038.04260062
F       -1.55762702       0.34360069      -1.43867261       0.03167211       0.01979321      -0.01730523   -2718.30040014
F       -2.94514284      -1.27467427      -0.95215267      -0.02418360       0.00947485      -0.01435541   -2718.30356164
C       -1.81464233      -0.24399926       0.84240130      -0.01212866      -0.02301393      -0.00708983   -1038.06778545
F       -1.35263697       0.94384977       1.26649241       0.00483189      -0.00940929      -0.01290790   -2718.29782949
F       -2.77799670      -0.65218252       1.69111774      -0.00488962       0.01543845       0.04460818   -2718.25321212
C       -0.66858610      -1.30602141       0.99267560      -0.01588276       0.00416284      -0.01142975   -1038.05376278
F       -0.30836631      -1.25277913       2.28768910       0.00119249      -0.01732146      -0.01448067   -2718.26006994
F       -1.20937233      -2.51361713       0.74869883       0.00084537      -0.01283011       0.03227511   -2718.25636787
C        0.64605776      -1.26900382       0.13254155      -0.02804761       0.01862970       0.02885718   -1038.07539673
F        0.31867759      -1.54604064      -1.13960336       0.01472513       0.02961080       0.00663172   -2718.29666413
F        1.40090448      -2.27644811       0.60967584      -0.00955722      -0.01232215      -0.03319781   -2718.25962220
C        1.49788349       0.03328098       0.19135062      -0.02063664      -0.00161441      -0.00169385   -1038.04805234
F        0.77086103       1.04774932      -0.30688699      -0.04195339       0.00916925      -0.00476684   -2718.28965885
F        1.78334026       0.28898865       1.47955004      -0.01842801       0.00687170       0.01576445   -2718.29881748
C        2.83073856      -0.01937159      -0.61114833       0.01785319       0.00568996       0.01579641   -1038.05350265
F        2.55647985      -0.29868925      -1.89661827       0.02670907       0.01713028      -0.01680541   -2718.29916067
F        3.62612604      -0.97761276      -0.11098555       0.01521719      -0.04276564       0.01511930   -2718.29748287
C        3.64225786       1.31168280      -0.57905306       0.00312443      -0.02028065       0.00113493   -1038.22937973
F        3.98103566       1.62405463       0.66929286       0.00382930       0.03207169      -0.00348720   -2718.42619003
F        2.94667882       2.31443318      -1.10710332       0.04006819       0.00706631      -0.01367425   -2718.42720318
F        4.75346383       1.13986837      -1.29205067      -0.00041589      -0.00332173      -0.01988978   -2718.41305478
