20
Properties=species:S:1:pos:R:3:forces:R:3:energies:R:1 energy=-6455.377702361209 stress="-1.864203391676854e-07 -4.014538043507131e-09 -5.6910064693453225e-09 -4.014538043507131e-09 3.711242200121238e-09 2.6827345060238577e-09 -5.6910064693453225e-09 2.6827345060238577e-09 -2.955824747994834e-08" free_energy=-6455.377702361209 pbc="F F F"
C        3.18143074       0.27236311       0.09906102       0.02025266       0.00526598       0.00113667   -1037.57580218
C        1.87993705      -0.51029573      -0.01158690       0.02761751       0.00356817       0.00124459   -1037.72756635
C        0.65185506       0.38678097       0.02242737       0.00843175      -0.01745788      -0.00118953   -1037.72104758
C       -0.65185508      -0.38678095      -0.08751672      -0.00843331       0.01745650       0.00118927   -1037.72104746
C       -1.87993694       0.51029618      -0.05350763      -0.02761744      -0.00356872      -0.00124469   -1037.72756634
C       -3.18143072      -0.27236327      -0.16415011      -0.02025262      -0.00526753      -0.00113614   -1037.57580216
H        3.27275478       0.98650226      -0.72048983       0.01539466      -0.02095725       0.01142869     -16.39220935
H        4.05167936      -0.38353947       0.07325008      -0.02919993       0.03112816       0.00163811     -16.39591194
H        3.21298070       0.83826549       1.03113271       0.01625568      -0.01883148      -0.01371732     -16.39220914
H        1.87118093      -1.08885919      -0.93754829       0.01993811      -0.00648548      -0.01163799     -16.36786449
H        1.81184394      -1.23602465       0.80136925       0.01914123      -0.00845989       0.01170860     -16.36786435
H        0.71080492       1.11359123      -0.79149631       0.00764545       0.01789603      -0.01634764     -16.37418803
H        0.65142439       0.96630977       0.94889711       0.00641744       0.01485427       0.01959938     -16.37418787
H       -0.71080669      -1.11358816       0.72640958      -0.00764448      -0.01789615       0.01634689     -16.37418780
H       -0.65142307      -0.96631342      -1.01398418      -0.00641724      -0.01485203      -0.01960035     -16.37418805
H       -1.87118038       1.08886547       0.87245012      -0.01993798       0.00648448       0.01163862     -16.36786452
H       -1.81184414       1.23601991      -0.86646845      -0.01914106       0.00846085      -0.01170707     -16.36786438
H       -3.27275079      -0.98650233       0.65540129      -0.01539621       0.02095886      -0.01142799     -16.39220922
H       -4.05167962       0.38353878      -0.13833567       0.02919997      -0.03112750      -0.00163922     -16.39591198
H       -3.21298444      -0.83826598      -1.09622144      -0.01625420       0.01883060       0.01371709     -16.39220918
