15
Properties=species:S:1:pos:R:3:forces:R:3:energies:R:1 energy=-29342.552730815896 stress="-9.978771607813835e-08 -3.563519988635074e-08 -2.7481916430834697e-08 -3.563519988635074e-08 3.64491536835818e-08 -1.2654171824036435e-08 -2.7481916430834697e-08 -1.2654171824036435e-08 2.2981234534999182e-08" free_energy=-29342.552730815896 pbc="F F F"
O        3.34367292      -0.33342176      -0.19199768       0.00612996      -0.00764792       0.00643076   -2048.33619858
C        2.10415776      -0.81392764      -0.28582344       0.01960575       0.01774348      -0.01717424   -1037.78517151
O        1.78791106      -1.88595596      -0.69493997      -0.03591615       0.01030137       0.02271906   -2048.31124151
C        1.11599349       0.25732945       0.23645379      -0.00092082      -0.00523247      -0.01680348   -1038.25652792
F        1.30808321       1.41697232      -0.41623834       0.02639973      -0.00402704       0.00845431   -2718.40197604
F        1.35999675       0.47939498       1.54210720       0.00142614       0.01063983      -0.03211206   -2718.38912449
O       -0.16011411      -0.21580279       0.05748531      -0.00714095      -0.03152956       0.01257893   -2048.02260884
C       -1.22291117       0.64997620       0.04832500       0.02227743       0.02221601       0.00774183   -1038.25688819
F       -1.10399860       1.63029195       0.95600430       0.00932647      -0.00205217       0.04664662   -2718.39453198
F       -1.36786912       1.22315542      -1.15617737      -0.02509811      -0.01428523      -0.00773141   -2718.39234058
C       -2.49660728      -0.17236136       0.36954807      -0.01586967       0.00291528      -0.00429693   -1038.18692663
F       -2.38178833      -0.74472823       1.56552226       0.01185928       0.01135317      -0.01174384   -2718.44022140
F       -3.54976775       0.64123878       0.37929766      -0.01684402      -0.02222584      -0.01858614   -2718.43364994
F       -2.68348605      -1.11603717      -0.54914731      -0.01023303       0.00861246      -0.00147625   -2718.43956261
H        3.94672722      -1.01612418      -0.51510966       0.01499799       0.00321861       0.00535283     -16.50576059
