20
Properties=species:S:1:pos:R:3:forces:R:3:energies:R:1 energy=-44285.542286661395 stress="-9.618053620663566e-08 4.928310333734976e-08 4.103674614992213e-08 4.928310333734976e-08 -3.1557291335442384e-11 2.1673291263930565e-09 4.103674614992213e-08 2.1673291263930565e-09 5.8947864386173725e-08" free_energy=-44285.542286661395 pbc="F F F"
F        3.93153549       0.67461122       0.88221854       0.00145418       0.02232261      -0.03063167   -2718.41000954
C        2.66732969       0.80675177       0.48664206      -0.00065748      -0.00404899       0.00944244   -1038.24017592
F        2.62930551       1.59120250      -0.58829784       0.00971588      -0.01352889       0.02216321   -2718.43714352
F        1.97787064       1.37628179       1.47227164      -0.01865941       0.00011700      -0.01246658   -2718.42203679
C        2.10410760      -0.60493279       0.16352751       0.00122660      -0.04253551       0.00207762   -1038.04443543
F        2.98895908      -1.20821030      -0.65171179       0.01831131      -0.00013657       0.00080822   -2718.26821014
F        2.04303446      -1.29184008       1.31559662       0.02381267      -0.01253863       0.00122283   -2718.29164910
C        0.72157276      -0.71866319      -0.56539171      -0.02821711      -0.00523658      -0.01909927   -1038.07906851
F        0.86576498      -0.25447942      -1.81692936       0.02442802       0.01647499       0.00947970   -2718.28942537
F        0.45413332      -2.03620031      -0.62055891       0.00157394       0.00509901      -0.02454644   -2718.27217761
C       -0.47548187       0.01088350       0.10601703      -0.01280814       0.02928032       0.02523477   -1038.04929101
F       -0.26311415       1.33563899      -0.00528132       0.01246903       0.01084797      -0.01624981   -2718.28653684
F       -0.50163037      -0.32089568       1.40939499      -0.01544751      -0.01273692      -0.00081209   -2718.30552032
C       -1.87053740      -0.30319794      -0.51456227       0.00480762      -0.00483426       0.01313608   -1038.05242250
F       -1.84920334       0.01810145      -1.82022850       0.00970576      -0.01059341       0.03994521   -2718.30474298
F       -2.14392884      -1.61187448      -0.38619598       0.02011069       0.01336067       0.01205634   -2718.29239319
C       -3.05092831       0.47194265       0.14530178      -0.02831783       0.00169101      -0.00030128   -1038.22936717
F       -3.16963930       0.14458413       1.42975548       0.00271409       0.01645466      -0.00551730   -2718.42656762
F       -2.88602505       1.78775054       0.04464048      -0.01533964      -0.01341038      -0.01147407   -2718.42886157
F       -4.17312489       0.13254564      -0.48620844      -0.01088267       0.00395188      -0.01446792   -2718.41225151
