8
Properties=species:S:1:pos:R:3:forces:R:3:energies:R:1 energy=-6238.071544058532 stress="1.93756425927351e-07 9.067220726634159e-08 2.2378538111124588e-08 9.067220726634159e-08 1.71529645223197e-07 -1.0435547210337911e-08 2.2378538111124588e-08 -1.0435547210337911e-08 4.46875119580765e-08" free_energy=-6238.071544058532 pbc="F F F"
C       -0.92829203      -0.04724685      -0.26377484       0.01699238       0.00081798       0.00484102   -1037.60819900
C        0.49382221       0.30178698       0.06431362      -0.00670929       0.00695469      -0.00391595   -1038.01754074
O        1.00543096       1.37951606      -0.07925235      -0.01000864      -0.01483810       0.00109458   -2048.34084531
O        1.17331966      -0.75797521       0.55805207      -0.02291376       0.00029230      -0.00691063   -2048.37073081
H       -1.42729882       0.83225748      -0.65417145      -0.01925293      -0.03551480       0.00401758     -16.43102833
H       -1.43563164      -0.40635946       0.62987285       0.02464534       0.02349968      -0.00888164     -16.40938229
H       -0.95106214      -0.85288955      -0.99547367       0.01964121       0.02811212       0.00790711     -16.40938195
H        2.06971181      -0.44908943       0.74043378      -0.00239431      -0.00932387       0.00184794     -16.48443563
