50
Properties=species:S:1:pos:R:3:forces:R:3:energies:R:1 energy=-17159.86263362168 stress="9.033342018649935e-08 -1.438614844777414e-08 1.0870497830229802e-08 -1.438614844777414e-08 3.464575597674006e-08 1.2164903134563016e-08 1.0870497830229802e-08 1.2164903134563016e-08 1.494613486134751e-08" free_energy=-17159.86263362168 pbc="F F F"
C        5.63290917       1.44989575       1.88770915      -0.00944145      -0.00705677      -0.00835834   -1037.56804203
C        4.96679613       0.74346555       0.71180870      -0.00171941       0.00354092      -0.00154852   -1037.74155915
C        4.82785008       1.65671232      -0.50138303      -0.00587214      -0.00487738       0.00108644   -1037.71337814
C        4.31238895       0.98492988      -1.77362553       0.00253446      -0.00719496       0.00683452   -1037.67420716
C        2.90831112       0.37399630      -1.66593867       0.00119544      -0.00322434       0.00702774   -1037.69420089
C        2.89996148      -1.11860790      -1.34186537      -0.00420990       0.00078121      -0.00426108   -1037.73320824
C        1.50563777      -1.73853543      -1.31200918       0.00669161       0.00915706       0.00223915   -1037.70342622
C        0.61537376      -1.22445580      -0.18550663      -0.00010265      -0.00062261      -0.00516854   -1037.74114984
C       -0.70557251      -1.98018799      -0.10054808      -0.00938615       0.00962023       0.00191514   -1037.72485868
C       -1.59646366      -1.55892759       1.06658270      -0.00891171       0.00509678       0.00601503   -1037.71676324
C       -2.05383925      -0.09922786       1.05330433      -0.00449206       0.00018550       0.00320889   -1037.72300643
C       -2.83126846       0.33271462      -0.18992688       0.00381555       0.00225307       0.00270394   -1037.73311564
C       -4.08431126      -0.48967530      -0.50238456       0.00942426       0.00563612      -0.00392451   -1037.70607918
C       -5.13845215      -0.62881334       0.59975534       0.01651760       0.00958336       0.00952446   -1037.69766193
C       -5.99798182       0.60565847       0.88821465       0.01324767       0.01142315       0.00082161   -1037.69612755
C       -5.34272065       1.68804908       1.74352553       0.01291648      -0.01411024      -0.00041170   -1037.59645518
H        6.64131019       1.77311433       1.62675280      -0.01844278      -0.00978038      -0.00107907     -16.39192659
H        5.70484537       0.79960579       2.75855933      -0.00096088       0.00652431      -0.00970133     -16.39435664
H        5.06930619       2.33736644       2.17832494      -0.00346810      -0.01792628      -0.00415020     -16.39229930
H        5.54669210      -0.14052975       0.43603590       0.00075767       0.01088425      -0.00119589     -16.37390758
H        3.98359459       0.38218398       1.01670213       0.00265836       0.00358419      -0.00385201     -16.37401309
H        4.16144940       2.48486950      -0.24399597       0.01417088       0.00495989       0.00131318     -16.37045315
H        5.80250048       2.10390692      -0.71293676      -0.01651919      -0.00019622       0.00319796     -16.35916500
H        5.01580105       0.20530555      -2.07741263       0.01048170       0.01160262      -0.01539314     -16.37999580
H        4.32025942       1.72991038      -2.57046826       0.00763639      -0.01326006       0.00562836     -16.35768116
H        2.38207367       0.50868245      -2.61345145      -0.00332174       0.00888828       0.01483793     -16.36013052
H        2.33372591       0.92406631      -0.91812343      -0.00968239       0.00411671      -0.00422967     -16.39267659
H        3.39136644      -1.30003803      -0.38435269       0.00334178       0.01096255      -0.01770429     -16.38817773
H        3.50072856      -1.63030827      -2.09716704       0.00378994      -0.01015812       0.01684099     -16.35974620
H        1.00939699      -1.56000650      -2.27033955       0.00698004      -0.00896922       0.00937250     -16.37903936
H        1.60080701      -2.82276507      -1.21432361      -0.00109952       0.01950626       0.00105088     -16.36516749
H        1.14802398      -1.32040947       0.76578881      -0.01271639       0.00161196      -0.00148962     -16.38075293
H        0.42218871      -0.16037787      -0.32479733       0.00382652      -0.00129362       0.00518152     -16.38779544
H       -0.48751802      -3.04635865      -0.00223141      -0.02097923       0.00808187      -0.01603089     -16.35806575
H       -1.24445185      -1.86895389      -1.04424312      -0.00509349       0.00699037       0.00159778     -16.38760134
H       -2.47056919      -2.21165120       1.09891501      -0.00748335       0.00534624      -0.00711034     -16.37631506
H       -1.05113166      -1.73664630       1.99660771      -0.01919341      -0.01204208       0.00720859     -16.36191597
H       -1.18401271       0.55133065       1.15835443      -0.00896923      -0.00247862       0.00612536     -16.36500874
H       -2.66541839       0.07726496       1.93946558       0.00363221       0.00774411       0.00181362     -16.37183517
H       -3.09290549       1.38523716      -0.08356350      -0.00839089      -0.00320542      -0.00599040     -16.36511667
H       -2.17220542       0.27954053      -1.05914470      -0.00335874       0.01106347       0.00211482     -16.36295542
H       -3.77215573      -1.49317424      -0.79747020       0.00606826       0.00195402       0.01415160     -16.36065914
H       -4.56700418      -0.05647213      -1.38164600       0.01099490      -0.02711156      -0.02598552     -16.36244072
H       -4.66869687      -0.96236837       1.52716833       0.00261780      -0.02461511       0.01247818     -16.39291952
H       -5.81005347      -1.43495081       0.29800102       0.01544408       0.00915269       0.01393311     -16.33678779
H       -6.33042886       1.03658711      -0.05901549      -0.01142294      -0.00068462       0.00153445     -16.37518502
H       -6.90161704       0.27043725       1.40047714       0.01815625       0.00360690      -0.00433595     -16.34347882
H       -4.55235349       2.21542526       1.21381255      -0.00107308      -0.02026441       0.00295715     -16.39614470
H       -4.90397825       1.25477162       2.64285608      -0.01575219       0.00181642       0.00879905     -16.39485659
H       -6.07818812       2.42841357       2.05911682       0.03516316      -0.00660250      -0.02959294     -16.38082313
