18
Properties=species:S:1:pos:R:3:forces:R:3:energies:R:1 energy=-45615.1708497862 stress="6.74830159062213e-08 5.9024228754755126e-08 1.1008855520653582e-07 5.9024228754755126e-08 -6.872741293464314e-08 -7.348443347949549e-09 1.1008855520653582e-07 -7.348443347949549e-09 -8.588518616044119e-08" free_energy=-45615.1708497862 pbc="F F F"
O        3.04001061      -0.04421059       1.37329384      -0.01342870      -0.00242119       0.01115762   -2047.82607069
S        2.01307862       0.53471643       0.32162245      -0.00040080       0.02956348       0.00060011  -10837.93596919
O        2.65422162       0.55759690      -0.93874743       0.00178512      -0.02313224      -0.00599818   -2047.99706348
O        1.35446451       1.65322913       0.89850535      -0.02910466       0.01270415      -0.00961358   -2048.07104734
C        0.81096012      -0.87337353       0.28902320       0.02291380       0.00872612       0.02056893   -1037.78177487
F        1.52714574      -1.98892492       0.09639261      -0.00098190      -0.00778960      -0.00970837   -2718.18029906
F        0.22578539      -0.94456460       1.49556577      -0.00472306       0.00089863       0.01787848   -2718.23372493
C       -0.28680282      -0.85919928      -0.82148516       0.01968496      -0.01017784      -0.00182957   -1038.07401585
F        0.33936030      -0.98009853      -2.00152178       0.00915513      -0.00184266      -0.01558828   -2718.24296381
F       -1.02677395      -1.96350227      -0.60872054      -0.01068734      -0.00522910      -0.02103120   -2718.26080033
C       -1.26014338       0.35231788      -0.97129496       0.01099841      -0.00782419      -0.00360294   -1038.07798194
F       -2.06172059       0.04457043      -2.00738341       0.00850057       0.00497745      -0.01173134   -2718.26258183
F       -0.54066783       1.43942110      -1.28652091      -0.00314745       0.01410797       0.00892533   -2718.27305180
C       -2.19030336       0.69995391       0.22312188      -0.00148567      -0.00798879       0.00371921   -1038.24857342
F       -3.03338613       1.65561599      -0.16039079       0.00443587       0.00079425      -0.00635121   -2718.41503926
F       -1.49277111       1.14028370       1.26428778      -0.00343012       0.01091747       0.00219721   -2718.40565972
F       -2.89225678      -0.37163795       0.58690366      -0.00797161       0.00291765       0.04054894   -2718.43015044
H        2.81979904       0.30781744       2.24734844      -0.00211255      -0.01920155      -0.02014114     -16.45408184
