26
Properties=species:S:1:pos:R:3:forces:R:3:energies:R:1 energy=-53192.35716388999 stress="-2.506215423458917e-08 -1.6041541030026092e-08 7.0578072071987725e-09 -1.6041541030026092e-08 3.387692235972592e-08 1.4741978320721424e-08 7.0578072071987725e-09 1.4741978320721424e-08 1.0797901722109904e-08" free_energy=-53192.35716388999 pbc="F F F"
O        4.61396894      -1.18956945       0.64077953      -0.01720223       0.00017571      -0.00719045   -2048.34094923
C        3.75660993      -1.36058507      -0.36414771      -0.02180625       0.00081823       0.04067145   -1037.82462811
O        4.01023550      -1.77062713      -1.45325650       0.02833553       0.00377364      -0.01182123   -2048.31559950
C        2.31486372      -0.95258159       0.04272499      -0.00735170      -0.00253998       0.00462670   -1038.09105919
F        1.46472828      -1.79539193      -0.56644665      -0.00256074       0.00935964      -0.00973253   -2718.29883374
F        2.14602205      -1.04542055       1.37461981       0.04765778      -0.00138110       0.01054180   -2718.31305555
C        2.00300886       0.49933862      -0.41324646       0.01831525       0.00775158      -0.02073750   -1038.06343629
F        1.97241829       0.51898107      -1.75355569      -0.01091080      -0.00246214      -0.02416123   -2718.28886918
F        3.02997594       1.27716284      -0.00327074       0.01525275      -0.01151152       0.02766832   -2718.28466818
C        0.70912271       1.20581889       0.12565225       0.00716523      -0.00020805      -0.01767293   -1038.07902493
F        0.65510374       2.38316218      -0.52211966       0.00948945       0.00707057       0.01311706   -2718.26652170
F        0.86823930       1.44242023       1.43832008      -0.03215657      -0.01441636      -0.02218476   -2718.29883495
C       -0.62905226       0.43993314      -0.08772754       0.00558127       0.00299947       0.01458421   -1038.03462825
F       -0.70939852       0.07202684      -1.37992789       0.01339037      -0.00777177       0.03671748   -2718.31866299
F       -0.59457151      -0.65743273       0.69128310      -0.00726085       0.00222531      -0.00298723   -2718.28911660
C       -1.92490262       1.22027914       0.28310691       0.00379507      -0.00840176      -0.01544023   -1038.07937748
F       -1.93030138       1.44677626       1.60761353       0.01867551      -0.01652462      -0.02732425   -2718.29664338
F       -1.94372270       2.40121793      -0.35831766      -0.00003324      -0.00652334       0.01577208   -2718.26831894
C       -3.27451069       0.52019310      -0.10423165      -0.00850416       0.00548838      -0.02544277   -1038.03921924
F       -3.39545687       0.53146507      -1.44156759      -0.02269023       0.00356414      -0.02347632   -2718.29006596
F       -4.24665625       1.28889028       0.42023352       0.01398395      -0.00659475       0.02502176   -2718.27122614
C       -3.52934578      -0.93651316       0.37602459      -0.00416906       0.00197494      -0.00510463   -1038.24010857
F       -4.80467082      -1.24023810       0.14474295      -0.00383723       0.01071558       0.03776424   -2718.40927766
F       -3.28507855      -1.05586218       1.67929110      -0.03085833      -0.00475148      -0.00863340   -2718.43565335
F       -2.76797929      -1.79693501      -0.29552159       0.00387349       0.01094745       0.00094706   -2718.41985336
H        5.49134999      -1.44650867       0.32562601      -0.01617427       0.01622225      -0.00552273     -16.49953141
