27
Properties=species:S:1:pos:R:3:forces:R:3:energies:R:1 energy=-10644.422430556157 stress="-2.692060319440218e-08 4.968464786852956e-09 2.294752622056485e-09 4.968464786852956e-09 -1.199150437390141e-08 -7.2318316025121086e-09 2.294752622056485e-09 -7.2318316025121086e-09 3.8523364668921033e-08" free_energy=-10644.422430556157 pbc="F F F"
C        4.30614523      -0.12080139      -0.54765623       0.00543999       0.00498023       0.00192841   -1037.56998842
C        2.82667071      -0.48789565      -0.54361233       0.01732116       0.00476780       0.00504369   -1037.72894637
C        2.03044927       0.33160503       0.46657922      -0.01057685       0.00181352       0.00635851   -1037.70812677
C        0.56324668      -0.07239494       0.58800569       0.00468430      -0.00657485      -0.00835358   -1037.72335927
C       -0.25424842       0.19981423      -0.67116675      -0.00460354       0.00884139       0.00633313   -1037.72137425
C       -1.72202122      -0.20332427      -0.55413306       0.00645062      -0.00214916       0.01769512   -1037.72209772
C       -2.50771564       0.60584474       0.47379847       0.01695870      -0.00632989       0.00942261   -1037.71968128
C       -3.99623452       0.30632792       0.44583509       0.01142460       0.02080226       0.00548636   -1037.74551964
O       -4.29757715      -1.02551801       0.84461550      -0.02499074      -0.01088456      -0.04060973   -2047.94586170
H        4.86512223      -0.71192306      -1.27261797      -0.01282701       0.01796417       0.02060815     -16.39477072
H        4.44408770       0.93262322      -0.79649851      -0.00528993      -0.03192680       0.00100355     -16.39271663
H        4.75000013      -0.28686694       0.43506431      -0.01079426      -0.00176869      -0.03100465     -16.39250307
H        2.71042990      -1.54922426      -0.31065261       0.01016649       0.00322269      -0.00209116     -16.36969460
H        2.41654064      -0.34598317      -1.54398619       0.00913780      -0.00465150       0.00122755     -16.37066714
H        2.09267328       1.39039272       0.19915521       0.00135944      -0.00425516       0.00816663     -16.37843094
H        2.50802120       0.23433969       1.44409975      -0.00214547       0.00794062       0.00011113     -16.36359955
H        0.12024978       0.46047202       1.43062967       0.00751208      -0.01173191      -0.01650558     -16.37069966
H        0.50381504      -1.13753837       0.83114275      -0.00705460       0.00952304      -0.00072574     -16.38011716
H       -0.19741332       1.26534931      -0.91076357       0.01766351       0.00039798      -0.01258660     -16.37949812
H        0.18766257      -0.33238464      -1.51397565      -0.00552597       0.01549781       0.00417563     -16.37029565
H       -1.77105245      -1.26478243      -0.29698542      -0.00475437      -0.00692167      -0.01889374     -16.38518340
H       -2.20146785      -0.09227271      -1.53122061       0.01270991      -0.00321764       0.02546092     -16.36978103
H       -2.14241578       0.40154508       1.47979163       0.03159850       0.01299924       0.00351537     -16.38990955
H       -2.35666647       1.67282944       0.28624231      -0.03723232      -0.01562293      -0.01006342     -16.38182912
H       -4.39647911       0.50618876      -0.55325864      -0.02193896       0.00446181      -0.00158810     -16.31806319
H       -4.52592480       0.94477509       1.14839470      -0.00665234       0.03589175       0.01069983     -16.31073615
H       -3.95589761      -1.62119740       0.17650220       0.00195927      -0.04306955       0.01518571     -16.51897948
