12
Properties=species:S:1:pos:R:3:forces:R:3:energies:R:1 energy=-5292.073049474315 stress="2.291280832588504e-08 2.210635616186929e-07 -9.818407655008936e-08 2.210635616186929e-07 2.165172063840837e-07 -1.5756796843008827e-08 -9.818407655008936e-08 -1.5756796843008827e-08 1.1011350204907715e-07" free_energy=-5292.073049474315 pbc="F F F"
C       -1.31720084      -0.01041409       0.50291506       0.01436362       0.01471769      -0.00697175   -1037.58659869
C       -0.14903496       0.65291105      -0.21768352       0.00464721      -0.01288363      -0.00547929   -1037.71481993
C        0.91991021      -0.33817753      -0.65002881       0.00475177      -0.00120487       0.02861708   -1037.74627116
O        1.50518795      -1.02393288       0.45197543       0.01541727      -0.01686432      -0.01614106   -2047.94244868
H       -2.07100310       0.72034868       0.78950055      -0.00576661       0.00769035       0.01227358     -16.39413627
H       -0.97599380      -0.52131407       1.40044161       0.00466710       0.00232409       0.00354800     -16.40112220
H       -1.79750576      -0.75387484      -0.13342733       0.01156267       0.01807795      -0.02552523     -16.39384933
H       -0.49899481       1.19252157      -1.10027740      -0.00805045      -0.02618414       0.00061286     -16.37459778
H        0.31675968       1.40145702       0.43121474      -0.03932633      -0.00843979      -0.01051153     -16.37198851
H        0.48626961      -1.11866564      -1.27595447      -0.00323325       0.04518195       0.01095541     -16.31309699
H        1.69059179       0.17037909      -1.23760351      -0.01619607      -0.02311267       0.01293938     -16.31382711
H        1.89101403      -0.37123835       1.03892764       0.01716308       0.00069739      -0.00431745     -16.52029283
