6
Properties=species:S:1:pos:R:3:forces:R:3:energies:R:1 energy=-3614.9560181537972 stress="-3.044880668743552e-08 1.1355868837898703e-10 -1.4117985022777476e-10 1.1355868837898703e-10 -2.33012805605844e-08 1.8247775523477753e-12 -1.4117985022777476e-10 1.8247775523477753e-12 -2.3303198107396334e-08" free_energy=-3614.9560181537972 pbc="F F F"
C       -0.49229423       0.00769326      -0.00894452      -0.00168760       0.00002647      -0.00003169   -1037.84393786
C        0.96591240      -0.01509496       0.01755143       0.01162323      -0.00018103       0.00020848   -1036.85422976
N        2.11236756      -0.03301084       0.03838048      -0.00211296       0.00003234      -0.00003480   -1491.07428833
H       -0.88071170       0.00363632       1.00587944      -0.00273526      -0.00002812       0.00711290     -16.39452096
H       -0.83897012       0.90310984      -0.51766569      -0.00244837       0.00627609      -0.00356589     -16.39452060
H       -0.86630390      -0.86633362      -0.53520113      -0.00263903      -0.00612576      -0.00368900     -16.39452065
