10
Properties=species:S:1:pos:R:3:forces:R:3:energies:R:1 energy=-5259.499575985155 stress="1.3098231950894273e-07 -4.212329398768093e-08 1.3455403992077297e-08 -4.212329398768093e-08 -5.6850846990399945e-08 -3.310388887729816e-09 1.3455403992077297e-08 -3.310388887729816e-09 -6.356113368240916e-08" free_energy=-5259.499575985155 pbc="F F F"
C       -1.27255719       0.22864556       0.06210017       0.00066610      -0.00278949       0.00913876   -1037.58905340
C        0.07728230       0.16307882      -0.61157241       0.00560079       0.01181836      -0.04433125   -1037.69766929
O        0.22362117       0.47187991      -1.76962335      -0.00055566      -0.00117423       0.00440574   -2048.16278956
C        1.23490790      -0.30809294       0.23583566      -0.00294492      -0.00201767       0.00888828   -1037.58905356
H       -2.02065081       0.57848629      -0.64150074       0.00062714      -0.00129652       0.00403744     -16.42093872
H       -1.22847373       0.89863106       0.92070926       0.01208961       0.00538989       0.00676350     -16.40478196
H       -1.54922000      -0.75592358       0.43907962       0.00872643      -0.01190095       0.00172874     -16.40478440
H        1.03402196      -1.30891163       0.61798732      -0.01296575      -0.00725514       0.00022769     -16.40478210
H        2.14628545      -0.31339548      -0.35276411      -0.00162804      -0.00081149       0.00388086     -16.42093879
H        1.35478295       0.34560199       1.09974859      -0.00961570       0.01003724       0.00526026     -16.40478420
