12
Properties=species:S:1:pos:R:3:forces:R:3:energies:R:1 energy=-6324.127812464158 stress="-9.740580035015375e-08 -2.811114145729637e-11 -4.187820128405933e-11 -2.811114145729637e-11 -9.738462858624394e-08 1.3168868008358865e-09 -4.187820128405933e-11 1.3168868008358865e-09 -1.7825853333108313e-11" free_energy=-6324.127812464158 pbc="F F F"
C        0.79885673      -1.13485239       0.01569230      -0.02125678       0.03018696      -0.00041766   -1037.56253710
C        1.38233385       0.12434734      -0.00107990      -0.03679365      -0.00329800       0.00002463   -1037.56253676
C        0.58347676       1.25920179      -0.01677279      -0.01554660      -0.03354447       0.00044105   -1037.56253548
C       -0.79885939       1.13485558      -0.01569035       0.02129445      -0.03025104       0.00041262   -1037.56253539
C       -1.38233682      -0.12434640       0.00108290       0.03683883       0.00330989      -0.00003186   -1037.56253521
C       -0.58347759      -1.25920021       0.01677290       0.01552705       0.03353900      -0.00044451   -1037.56253607
H        1.42040606      -2.01782126       0.02789982       0.01685430      -0.02394996       0.00033319     -16.45876499
H        2.45785525       0.22109127      -0.00192106       0.02917135       0.00264467      -0.00002489     -16.45876541
H        1.03745428       2.23891621      -0.02982787       0.01228558       0.02658604      -0.00034365     -16.45876637
H       -1.42040722       2.01782540      -0.02790062      -0.01686111       0.02394325      -0.00032899     -16.45876700
H       -2.45785769      -0.22109761       0.00192399      -0.02916843      -0.00260500       0.00002326     -16.45876682
H       -1.03744421      -2.23891972       0.02982068      -0.01234499      -0.02656133       0.00035680     -16.45876586
