5
Properties=species:S:1:pos:R:3:forces:R:3:energies:R:1 energy=-38626.995267376566 stress="-2.5652040864656536e-07 -8.159896066166438e-11 2.0376840108203128e-09 -8.159896066166438e-11 -2.560311480177348e-07 -1.235640210265805e-08 2.0376840108203128e-09 -1.235640210265805e-08 4.5261391952728186e-08" free_energy=-38626.995267376566 pbc="F F F"
Cl      -0.68868742       1.54793204      -0.36505452      -0.01236718       0.02771691      -0.00349234  -12524.45735229
C        0.00073525      -0.00444397       0.10863013       0.00022789      -0.00137904       0.03371591   -1037.30602977
Cl      -0.98652035      -1.34120952      -0.48123099      -0.01772399      -0.02425106      -0.00558419  -12524.45735233
Cl       1.66643029      -0.15366751      -0.45060539       0.02999497      -0.00289071      -0.00503156  -12524.45735233
H        0.00804223      -0.04861104       1.18826077      -0.00013169       0.00080390      -0.01960782     -16.31718066
