18
Properties=species:S:1:pos:R:3:forces:R:3:energies:R:1 energy=-6422.536512295012 stress="-5.554169315401841e-07 1.2448322795132962e-07 -1.591180586773422e-08 1.2448322795132962e-07 -1.9971938839347184e-08 -6.876291255054243e-08 -1.591180586773422e-08 -6.876291255054243e-08 -5.796296258887835e-07" free_energy=-6422.536512295012 pbc="F F F"
C        0.31372898      -1.35794649      -0.32376510      -0.00119045       0.00063606      -0.01860373   -1037.68555140
C        1.46314657      -0.34715943      -0.19281999       0.02548371      -0.00604546      -0.00335816   -1037.63768318
C        0.95034365       1.05801991       0.15718234       0.00326045      -0.00112461       0.01833349   -1037.68555188
C       -0.43060053       1.29083737      -0.44225475      -0.00435416      -0.00381701      -0.01773234   -1037.68555151
C       -1.46314700       0.34715914       0.19281760      -0.02548404       0.00604563       0.00335873   -1037.63768329
C       -0.83347178      -0.99091120       0.60883962       0.00228285       0.00430913       0.01800410   -1037.68555198
H       -0.05915169      -1.36519566      -1.34927661      -0.00933146      -0.00897052      -0.02891241     -16.37065688
H        0.66790646      -2.36616844      -0.11448991       0.03130982      -0.00814049      -0.01873222     -16.38391774
H        2.15982942      -0.68653187       0.57273719       0.02207608       0.02107781       0.03482141     -16.37516040
H        2.02629086      -0.30670363      -1.12440487       0.00118203      -0.02659746      -0.03788502     -16.37516023
H        1.65016233       1.81616197      -0.19098935       0.03521146      -0.00763945       0.00996465     -16.38391765
H        0.88357881       1.16958026       1.24063196       0.00301395       0.01046783       0.02974711     -16.37065676
H       -0.73298689       2.32879825      -0.31206770      -0.03564931       0.00565374      -0.00972418     -16.38391758
H       -0.37827450       1.11402107      -1.51778458       0.00011329       0.00367792      -0.03146262     -16.37065687
H       -2.27554226       0.16358307      -0.50927367      -0.01303097       0.01978895      -0.03978443     -16.37516048
H       -1.91058005       0.82965258       1.06093187      -0.01022273      -0.01427324       0.04284543     -16.37516005
H       -0.44615117      -0.91840464       1.62643090       0.00619878      -0.00518333       0.03062968     -16.37065654
H       -1.58508118      -1.77879225       0.61755506      -0.03086930       0.01013451       0.01849051     -16.38391789
