16
Properties=species:S:1:pos:R:3:forces:R:3:energies:R:1 energy=-5821.3417864888315 stress="2.1775229145423346e-09 7.550222356365904e-08 1.9641313398520258e-08 7.550222356365904e-08 -1.0468720542621963e-08 -1.721573982589364e-08 1.9641313398520258e-08 -1.721573982589364e-08 -2.8265218356321567e-08" free_energy=-5821.3417864888315 pbc="F F F"
C        1.93240189       0.35288154      -0.06314082       0.01759772       0.01483172       0.01944559   -1037.56791355
C        0.82425211      -0.20603114      -0.95293065       0.02766495      -0.00459673      -0.01916279   -1037.77173573
N       -0.14368093      -1.07056439      -0.29103379      -0.01493860      -0.00656049      -0.02346864   -1490.57724439
C       -0.94534656      -0.44950347       0.75755822      -0.02146231      -0.01181577       0.00000845   -1037.79598397
C       -1.89917878       0.59617686       0.20185719      -0.02741919       0.03439894      -0.00559726   -1037.56187610
H        2.66022782       0.91607231      -0.64865347      -0.04571522      -0.01407696       0.00457439     -16.39457806
H        2.46338212      -0.45731739       0.43801212       0.00156328       0.00928709       0.00686385     -16.40220813
H        1.53455347       1.01859722       0.70181802       0.00819507      -0.01318676      -0.00729463     -16.40328704
H        1.26415450      -0.77814738      -1.76928199       0.02858393      -0.02498616       0.00966755     -16.30956067
H        0.28286821       0.61149646      -1.42521049      -0.01886316       0.03264435      -0.00076868     -16.32129501
H        0.32788430      -1.88256562       0.08111789       0.00116970       0.00580893      -0.00873870     -16.42656685
H       -1.52538925      -1.24712478       1.22157630       0.00762718       0.01473681       0.01890328     -16.29908826
H       -0.34110170       0.00569271       1.55379610       0.01499813      -0.01598157      -0.01006634     -16.32136992
H       -2.57854172       0.93892325       0.98052096      -0.00386659       0.00321246       0.01730870     -16.39103730
H       -2.48812510       0.18088082      -0.61429518       0.01623407      -0.01661813       0.00902533     -16.40229435
H       -1.36836038       1.47053298      -0.17171042       0.00863105      -0.00709773      -0.01070011     -16.39574715
