15
Properties=species:S:1:pos:R:3:forces:R:3:energies:R:1 energy=-6362.277549858965 stress="2.523102179850353e-07 5.184727247854047e-08 1.9455808235307577e-08 5.184727247854047e-08 -1.0413779211390792e-07 1.0685109969925667e-09 1.9455808235307577e-08 1.0685109969925667e-09 -9.320617810429574e-08" free_energy=-6362.277549858965 pbc="F F F"
C        2.28443812       0.78551060       0.17427263      -0.00737396       0.00715382       0.00044156   -1037.58389029
C        1.23169819      -0.28923208       0.02009383      -0.02607349       0.00219965      -0.00083194   -1037.79507006
O       -0.04634950       0.31390793       0.03064879      -0.00546211       0.03698899       0.00361093   -2047.89116324
C       -1.09736928      -0.62052965      -0.10891868       0.02436360       0.00937450       0.00196188   -1037.79506992
C       -2.41764692       0.11666418      -0.08618839       0.00500266       0.00891363       0.00112704   -1037.58389020
H        3.28031578       0.34491838       0.16909431      -0.00486869      -0.02088235      -0.00236223     -16.40152078
H        2.14977310       1.31983331       1.11218328      -0.01439451       0.00740281       0.00814277     -16.39962295
H        2.22108647       1.50164221      -0.64209363      -0.01375519       0.00903326      -0.00758358     -16.39962292
H        1.37638195      -0.83560749      -0.91858205      -0.00835220      -0.01540327      -0.02684392     -16.30673314
H        1.30507576      -1.01740181       0.83554244      -0.01035227      -0.02050260       0.02236288     -16.30673318
H       -1.05324836      -1.35286030       0.70490999       0.01315940      -0.01715740       0.02366455     -16.30673324
H       -0.98194186      -1.17106751      -1.04921465       0.01516069      -0.01205766      -0.02554127     -16.30673318
H       -3.24511977      -0.58328964      -0.19236789       0.01070975      -0.01866535      -0.00149878     -16.40152088
H       -2.46789003       0.83466056      -0.90182847       0.01143758       0.01261582      -0.00618680     -16.39962290
H       -2.53920368       0.65285131       0.85244850       0.01079876       0.01098617       0.00953690     -16.39962297
