12
Properties=species:S:1:pos:R:3:forces:R:3:energies:R:1 energy=-6766.801374818556 stress="-2.6817907653348337e-07 -7.602749802321485e-08 5.5097511931392915e-09 -7.602749802321485e-08 2.7737082860739387e-07 1.090153189678736e-07 5.5097511931392915e-09 1.090153189678736e-07 6.369710521025224e-08" free_energy=-6766.801374818556 pbc="F F F"
C        1.28857441      -0.20839132      -0.39556651      -0.00311121       0.00297435      -0.00085148   -1037.68129839
N       -0.01542735       0.12560920       0.13359098      -0.00979037       0.00084588      -0.03809388   -1490.87693582
C       -1.07251863      -0.83022769      -0.09807588       0.00022436       0.00183141       0.00211911   -1037.67769775
C       -0.25927576       1.35013992       0.65910550       0.00045989      -0.02140219      -0.01830445   -1037.90461037
O        0.55593907       2.23920322       0.78646846      -0.00692221      -0.03510984       0.01677496   -2048.21014108
H        1.60505111      -1.17719024      -0.00874814       0.03445897       0.02823129       0.01410377     -16.35671689
H        1.25590630      -0.26749803      -1.48545238       0.02411372       0.02075747       0.00712222     -16.35284959
H        1.99498465       0.55811743      -0.09684026       0.00739463      -0.00908379      -0.01258547     -16.37628127
H       -1.99015911      -0.49038768       0.37464850      -0.00522708      -0.01140490      -0.01249116     -16.35703829
H       -0.80324217      -1.80076234       0.32003112      -0.02573730       0.01172034       0.01674884     -16.35520883
H       -1.25204958      -0.95982603      -1.16762540      -0.03022632      -0.00250800       0.02148093     -16.35314473
H       -1.30778294       1.46121357       0.97846400       0.01436293       0.01314800       0.00397661     -16.29945180
