10
Properties=species:S:1:pos:R:3:forces:R:3:energies:R:1 energy=-15058.029816575468 stress="-5.1455127963699266e-08 -3.9688505614024305e-08 -5.051776654200627e-08 -3.9688505614024305e-08 1.0466423007661143e-07 1.4935400408197836e-08 -5.051776654200627e-08 1.4935400408197836e-08 2.3874887068613154e-07" free_energy=-15058.029816575468 pbc="F F F"
C       -1.31503767      -0.09422875      -0.31325761       0.00269331      -0.00214365       0.02020316   -1037.25507208
S       -0.09764495      -0.26399882       1.00414936       0.00109683       0.01833219      -0.03287472  -10837.61831826
O        0.19709467      -1.71480843       1.13156754       0.00591821      -0.01403592      -0.01865617   -2047.59039621
C        1.26965165       0.46587096       0.08533606      -0.00728878      -0.00430663       0.01866356   -1037.25507216
H       -2.24081837      -0.53107047       0.05112256      -0.00283959       0.00756555      -0.01423990     -16.38548910
H       -1.46480725       0.96174001      -0.53001516      -0.01009583      -0.02862840      -0.01625852     -16.38663573
H       -0.96412326      -0.63315932      -1.19097412      -0.00433893       0.01865823       0.03435325     -16.38335413
H        1.43607202      -0.11304037      -0.82083129      -0.01368269       0.01663386       0.03291180     -16.38335410
H        2.14496409       0.41932565       0.72746931       0.00350453       0.00894019      -0.01326088     -16.38548906
H        1.03464907       1.50336953      -0.14456663       0.02503293      -0.02101541      -0.01084158     -16.38663574
