9
Properties=species:S:1:pos:R:3:forces:R:3:energies:R:1 energy=-4221.601434816167 stress="-7.279858830209448e-09 5.579799803464418e-08 6.408663024783602e-08 5.579799803464418e-08 9.914967693369928e-08 -1.3103596798460721e-08 6.408663024783602e-08 -1.3103596798460721e-08 -9.41040334182031e-08" free_energy=-4221.601434816167 pbc="F F F"
C       -0.90004813       0.16931243      -0.03038161       0.02215624      -0.00159906       0.00448189   -1037.58193541
C        0.46441207      -0.49274684      -0.04309398       0.02887401       0.00250022      -0.00327471   -1037.74412181
O        1.46167358       0.31003758       0.57977911      -0.00197705      -0.01044306      -0.00071091   -2047.92901181
H       -0.87590830       1.10789927      -0.58370202      -0.00775074       0.03151994      -0.02514997     -16.39696955
H       -1.65039512      -0.46924317      -0.49400448       0.00254053      -0.03335046      -0.00391859     -16.40153800
H       -1.20630779       0.38426109       0.99038746      -0.02190617       0.00512315       0.03415657     -16.40378435
H        0.75958233      -0.74056752      -1.06716773      -0.00775971       0.00473125       0.01259315     -16.31289642
H        0.44574350      -1.42213183       0.52415733      -0.00918580       0.02907939      -0.01741444     -16.30810691
H        1.50124787       1.15317899       0.12402592      -0.00499131      -0.02756138      -0.00076298     -16.52307056
