14
Properties=species:S:1:pos:R:3:forces:R:3:energies:R:1 energy=-8378.678474795692 stress="2.0170887364088626e-07 3.1757510610148406e-08 4.6283783236600614e-08 3.1757510610148406e-08 -1.6900143817004354e-08 -3.2236136772839116e-08 4.6283783236600614e-08 -3.2236136772839116e-08 5.3080153108831156e-08" free_energy=-8378.678474795692 pbc="F F F"
C       -1.95788662       0.65440726       0.08551645       0.01449293      -0.01778756       0.00105898   -1037.59616234
C       -1.22357459      -0.66708453       0.14890340       0.02583677      -0.00913921      -0.01587505   -1037.74416464
O        0.07515245      -0.56454827      -0.46923997       0.02854830       0.00748268      -0.00852436   -2048.17099426
C        1.07689904      -0.10326726       0.30213194       0.02190019       0.00165829      -0.01778719   -1038.06718045
O        0.94954902       0.19110593       1.46173900      -0.03744350       0.01475908      -0.00363995   -2048.35314134
C        2.35975094      -0.01541033      -0.47808756      -0.01092716      -0.01456051      -0.00974425   -1037.58839768
H       -2.06018032       0.97881203      -0.94859184       0.00332503       0.02563451       0.01994040     -16.40672544
H       -1.42385936       1.41550604       0.64922733      -0.00991520      -0.00144569       0.00017632     -16.42135785
H       -2.95490598       0.54651052       0.51129924       0.02028187      -0.00449654       0.00546297     -16.40099719
H       -1.10102008      -1.01212026       1.17203391      -0.00619850       0.03086331       0.00419126     -16.34825439
H       -1.73752831      -1.42959549      -0.42861193      -0.01387715      -0.02337620       0.00222074     -16.33641933
H        2.60750284      -0.99286752      -0.88613582       0.00997305      -0.00354236       0.00927768     -16.40613665
H        3.15651481       0.33484107       0.16910976      -0.03496164      -0.01090544      -0.01176610     -16.43191873
H        2.23358617       0.66371080      -1.31916261      -0.01103498       0.00485563       0.02500857     -16.40662451
