6
Properties=species:S:1:pos:R:3:forces:R:3:energies:R:1 energy=-3150.9995182183425 stress="-1.829091279275425e-07 -6.03878182958579e-08 -4.35001471969372e-08 -6.03878182958579e-08 -6.442192955938736e-08 1.3492018648553656e-08 -4.35001471969372e-08 1.3492018648553656e-08 -8.113066326850641e-08" free_energy=-3150.9995182183425 pbc="F F F"
C       -0.36255665       0.01874985      -0.00154190      -0.00129814      -0.00248192      -0.00168866   -1037.58166266
O        0.92388976      -0.50319320      -0.29673093      -0.00026719      -0.00709181      -0.00469228   -2047.89490576
H       -0.55811274       0.04340912       1.07232465       0.00115910      -0.00528141       0.01261409     -16.33517691
H       -0.50120764       1.02184738      -0.40972179       0.00201630       0.00946907      -0.00972791     -16.33517683
H       -1.08505862      -0.64483274      -0.46737664      -0.01995337      -0.00569163      -0.00452343     -16.33269724
H        1.58304589       0.06401959       0.10304660       0.01834330       0.01107770       0.00801819     -16.51989882
