9
Properties=species:S:1:pos:R:3:forces:R:3:energies:R:1 energy=-5696.528534815101 stress="2.5057700093886702e-08 4.3031173735908063e-08 6.105759421161603e-08 4.3031173735908063e-08 -7.771901601758218e-08 -1.383142570928646e-08 6.105759421161603e-08 -1.383142570928646e-08 -6.157487894394318e-08" free_energy=-5696.528534815101 pbc="F F F"
C       -1.10707972      -0.11890263      -0.05250997      -0.00970441       0.00882756       0.01544601   -1037.68183565
N        0.29469969      -0.48268053       0.01687800       0.01565281       0.00763428       0.01486164   -1490.90170437
C        1.27691654       0.44747131       0.02169703       0.02065270       0.01955555      -0.00101808   -1037.89790000
O        1.10363171       1.64045501      -0.09535826      -0.04038553       0.01397007      -0.00420211   -2048.19971685
H       -1.50494947       0.13764189       0.92856785      -0.01266371       0.00573791       0.02283114     -16.35243384
H       -1.21438280       0.74845536      -0.69639225       0.01684363      -0.00999167      -0.01570925     -16.36114113
H       -1.68156693      -0.94425915      -0.46328245       0.02338609      -0.00598360      -0.01221429     -16.35983624
H        0.55487570      -1.43251476       0.20521010      -0.03550110      -0.01186293      -0.01471173     -16.47865025
H        2.27785526       0.00433351       0.13518996       0.02171953      -0.02788717      -0.00528333     -16.29531650
