17
Properties=species:S:1:pos:R:3:forces:R:3:energies:R:1 energy=-5384.870549252531 stress="1.904399244672306e-09 -3.844854909783792e-09 9.1976725715104e-09 -3.844854909783792e-09 1.285923800763167e-08 -3.1728137124504816e-08 9.1976725715104e-09 -3.1728137124504816e-08 -2.903904849508823e-08" free_energy=-5384.870549252531 pbc="F F F"
C       -2.18030779      -0.40213120       0.35637729      -0.00734227      -0.00601326       0.00584624   -1037.58120837
C       -1.26444018       0.36059175      -0.59494416      -0.00524392       0.00485720      -0.00836747   -1037.71260990
C        0.08923277       0.72229361       0.01004894      -0.01072406       0.00550374      -0.00648838   -1037.71057326
C        0.96252674      -0.47871528       0.35307487       0.00869215      -0.00187646       0.00540686   -1037.73175404
C        2.33785881      -0.06780364       0.86278648       0.01794176      -0.00182622       0.00642227   -1037.57044646
H       -2.32124072       0.15233513       1.28513943      -0.00924210       0.00224050      -0.00833222     -16.39367529
H       -1.77203569      -1.37852760       0.61385197      -0.00327909       0.01381323      -0.00912044     -16.39465006
H       -3.16174404      -0.56231665      -0.08911088       0.02125567      -0.00546603       0.01800208     -16.38760356
H       -1.76553197       1.27598753      -0.91493825       0.00920808      -0.01182933       0.00410256     -16.36050376
H       -1.10188647      -0.23228961      -1.49766069      -0.00734111      -0.00339324      -0.01531031     -16.37114843
H       -0.06815222       1.31892938       0.91217126       0.00189421       0.01878910       0.02006957     -16.37549939
H        0.63436161       1.36138336      -0.68837403      -0.00335028       0.00205820      -0.00103863     -16.36273851
H        1.07113648      -1.10594378      -0.53435770       0.00554697      -0.00779661      -0.01643209     -16.36853387
H        0.46781377      -1.09437268       1.10460685      -0.01004547      -0.00627474       0.00705360     -16.37061660
H        2.95252703      -0.93477478       1.10329142      -0.00899056       0.02406671      -0.00305913     -16.39424758
H        2.25196010       0.54231347       1.76284414       0.00226917      -0.01287978      -0.00932509     -16.39251800
H        2.86792177       0.52304098       0.11486715      -0.00124913      -0.01397302       0.01057056     -16.39222216
