7
Properties=species:S:1:pos:R:3:forces:R:3:energies:R:1 energy=-6671.535662323024 stress="7.637545818896236e-09 2.472593448287191e-08 1.2513021507503616e-08 2.472593448287191e-08 -4.5940784381399175e-07 3.244100840317289e-08 1.2513021507503616e-08 3.244100840317289e-08 -1.2559307600525493e-07" free_energy=-6671.535662323024 pbc="F F F"
C       -0.65143947      -0.04051447      -0.08514804       0.00221320      -0.00024681      -0.00379099   -1037.52324048
N        0.82765075       0.04900929       0.08198098       0.02009408       0.00198847       0.01032095   -1490.03268948
O        1.42980200      -0.98847405       0.25832582      -0.00676818      -0.03209882      -0.00084871   -2047.38876152
O        1.32283097       1.15544921       0.05662044      -0.00990013       0.03053863      -0.00674257   -2047.38876120
H       -0.87947272      -1.00063903      -0.52574425       0.00000254      -0.02071880      -0.00679217     -16.40857550
H       -0.96900132       0.79361661      -0.69452717      -0.00197871       0.01899137      -0.01052864     -16.40857630
H       -1.08037021       0.03155244       0.90849223      -0.00366280       0.00154597       0.01838213     -16.38505784
