13
Properties=species:S:1:pos:R:3:forces:R:3:energies:R:1 energy=-8372.530290602139 stress="-4.447371940695628e-07 -7.88721284881494e-08 -5.3056894965729046e-08 -7.88721284881494e-08 -3.659056498242515e-09 -5.436763598420544e-09 -5.3056894965729046e-08 -5.436763598420544e-09 -4.801676431597907e-09" free_energy=-8372.530290602139 pbc="F F F"
O        2.48719409      -0.09582292       0.09021150       0.03023286       0.01314023       0.00659985   -2048.15329329
C        1.12364852      -0.03087329       0.04553098       0.00810575       0.00044513       0.00058587   -1037.91894700
C        0.35327814      -1.09520330      -0.40318818       0.00307260       0.00823864       0.00332590   -1037.46583292
C       -1.02746626      -0.97989503      -0.42937864      -0.01638055      -0.01714981      -0.00743264   -1037.58516881
C       -1.64347548       0.18837364      -0.01151159      -0.02468130      -0.00667858      -0.00382861   -1037.55030877
C       -0.86394504       1.24647670       0.43528101      -0.00431368      -0.00454414      -0.00196673   -1037.58327923
C        0.51658384       1.14542253       0.46694364       0.00096104      -0.01025860      -0.00389705   -1037.46835566
H        2.76935644      -0.95640496      -0.22636827       0.01721596       0.02419730       0.01018565     -16.48514750
H        0.83244507      -2.00916006      -0.73023374       0.01002940      -0.00432225      -0.00114947     -16.46320406
H       -1.62118978      -1.81126616      -0.77947153      -0.02123257      -0.01507574      -0.00688590     -16.45598950
H       -2.71847386       0.27299786      -0.03388427      -0.04026982       0.01455200       0.00354076     -16.46279783
H       -1.33698309       2.16085350       0.76280165       0.00682790       0.01733085       0.00701353     -16.45592531
H        1.12902739       1.96450151       0.81326744       0.03043241      -0.01987503      -0.00609118     -16.48204071
