17
Properties=species:S:1:pos:R:3:forces:R:3:energies:R:1 energy=-6859.27952312552 stress="2.43531771275953e-07 1.0500594913105213e-08 5.788545922014513e-08 1.0500594913105213e-08 2.8511605935901174e-07 5.2425958615528654e-08 5.788545922014513e-08 5.2425958615528654e-08 6.714058530995744e-08" free_energy=-6859.27952312552 pbc="F F F"
C       -0.50356721      -1.15294787      -0.57057787       0.00421101       0.00537316      -0.00834853   -1037.71256415
C       -1.43052881      -0.03018079      -0.10864599      -0.00831405      -0.00843350       0.00869673   -1037.68071028
C       -0.68973933       1.30038616      -0.07985460      -0.01179859      -0.00235504       0.01589636   -1037.77921393
N        0.48864673       1.18951607       0.77114168      -0.00739840      -0.01713217      -0.00897714   -1490.60989564
C        1.43420173       0.19476572       0.27973747       0.00032979      -0.00866853       0.01794939   -1037.77921403
C        0.77502805      -1.17828652       0.26476444      -0.00454176      -0.01039679       0.00933594   -1037.68071031
H       -0.24109335      -0.98976118      -1.61914304       0.00201064       0.00012069      -0.01150930     -16.37522147
H       -1.01348210      -2.11526714      -0.51754573       0.01288207       0.02270203      -0.00629820     -16.38677447
H       -1.79771335      -0.24974183       0.89502429       0.02039428       0.00696995       0.01747131     -16.38337714
H       -2.29868009       0.04700624      -0.76415741       0.01496348      -0.00870759      -0.00394048     -16.38664533
H       -0.43327615       1.58293634      -1.11397133       0.03042948      -0.00554137       0.02784128     -16.32160644
H       -1.33227289       2.08139453       0.32487644      -0.00423433       0.00300853      -0.03123303     -16.32903065
H        0.93905244       2.08717365       0.87079168      -0.00970401      -0.02513411      -0.01996098     -16.43389956
H        2.30065197       0.19027111       0.93994531       0.01282926      -0.00587508      -0.02834268     -16.32903077
H        1.79176801       0.42468654      -0.73726207      -0.02809042       0.02491898       0.01793223     -16.32160644
H        0.53551859      -1.46430885       1.29005073      -0.00995754       0.02277145       0.01233400     -16.38337705
H        1.47548576      -1.91764218      -0.12517400      -0.01401090       0.00637940      -0.00884689     -16.38664547
