11
Properties=species:S:1:pos:R:3:forces:R:3:energies:R:1 energy=-6760.802107752614 stress="-7.041371362039249e-08 1.7907430540041364e-08 2.1966633999166413e-09 1.7907430540041364e-08 -2.7251416115411246e-07 1.1598783960751176e-08 2.1966633999166413e-09 1.1598783960751176e-08 -6.201134375581782e-10" free_energy=-6760.802107752614 pbc="F F F"
C       -0.10293905       1.17950981      -0.04911561      -0.00366001       0.04193999      -0.00174754   -1037.56782007
C       -1.22739850       0.37648059       0.03538212      -0.00398934      -0.00300320       0.00031174   -1037.52300948
C       -1.05321115      -0.99835611       0.09032222       0.02262890      -0.00570332      -0.00071136   -1037.60999343
N        0.13872258      -1.58952996       0.06619011       0.00388914      -0.04456130       0.00185522   -1490.69968271
C        1.21061064      -0.80518112      -0.01522081      -0.02130555      -0.00945215       0.00134230   -1037.60999354
C        1.14402510       0.57883790      -0.07516254       0.00445163      -0.00228288      -0.00009314   -1037.52300947
H       -0.19674711       2.25439587      -0.09387456      -0.00270898       0.03103118      -0.00129345     -16.46592281
H       -2.21852098       0.80364188       0.05835978      -0.01366511      -0.01477854       0.00127137     -16.47619975
H       -1.90953229      -1.65768240       0.15685202      -0.00407293       0.00925119      -0.00026271     -16.42513842
H        2.16850385      -1.30969815      -0.03328733       0.00240870       0.00980221      -0.00053066     -16.42513840
H        2.04648691       1.16758170      -0.14044538       0.01602354      -0.01224318      -0.00014178     -16.47619968
