13
Properties=species:S:1:pos:R:3:forces:R:3:energies:R:1 energy=-6329.430137275351 stress="-5.6066050737356484e-08 -2.6869292730530065e-08 -1.3340439146186264e-07 -2.6869292730530065e-08 -2.1198340560726565e-07 6.854181655307198e-08 -1.3340439146186264e-07 6.854181655307198e-08 1.8356137998645982e-07" free_energy=-6329.430137275351 pbc="F F F"
C        0.70312615      -0.73350754       0.34061997       0.00521616       0.00727511      -0.01683950   -1037.63027755
C       -0.75607666      -0.75175053      -0.10798485      -0.00451414       0.01241434       0.01375567   -1037.63027749
C       -1.13510039       0.71586713       0.04316782       0.01601499       0.01496828      -0.02047632   -1037.70193004
O        0.05213924       1.46249680      -0.22906932       0.00033956       0.00952905      -0.00149262   -2047.78151869
C        1.18157609       0.58777126      -0.24735589      -0.01471206       0.02158113       0.01475172   -1037.70193014
H        0.76256212      -0.70872678       1.42861460       0.00068147       0.00054150      -0.00783940     -16.39422261
H        1.27892296      -1.58237477      -0.01663490       0.01445859      -0.02581037       0.00160561     -16.42589223
H       -0.82548786      -1.05633585      -1.15215385      -0.00055677       0.00295563       0.00729169     -16.39422261
H       -1.38556027      -1.40879125       0.48513949      -0.01623416      -0.02399715       0.00619560     -16.42589221
H       -1.47235442       0.93550804       1.06016833       0.01625129      -0.02759651      -0.01633132     -16.32530780
H       -1.91005066       1.03142210      -0.65264346      -0.01515981       0.01485638      -0.00104340     -16.34667904
H        1.52218824       0.46234996      -1.27911427      -0.01795132      -0.02009117       0.02380081     -16.32530779
H        1.98411545       1.04607142       0.32724634       0.01616621       0.01337381      -0.00337854     -16.34667907
