13
Properties=species:S:1:pos:R:3:forces:R:3:energies:R:1 energy=-4750.614081190281 stress="-5.6192119748523425e-08 -2.7851325851013403e-10 -2.7425495653750563e-09 -2.7851325851013403e-10 -5.757782503850229e-08 -1.3658830432101626e-08 -2.7425495653750563e-09 -1.3658830432101626e-08 -1.873505982195689e-07" free_energy=-4750.614081190281 pbc="F F F"
C       -1.26821811      -0.53805704       0.03774251      -0.00881895      -0.00587933      -0.02219467   -1037.63224636
N       -0.01032189      -0.05146201      -0.49441123       0.00086743       0.00433586       0.04165672   -1490.62212083
C        1.09947426      -0.83072910       0.01877529       0.00676840      -0.00780515      -0.02232389   -1037.63224661
C        0.16597321       1.35497148      -0.18923921       0.00062214       0.00658363      -0.02368875   -1037.63224645
H       -2.09383267       0.03234744      -0.38365460      -0.00526555       0.00115777      -0.00876181     -16.34778324
H       -1.31978474      -0.45571303       1.13439041       0.01107454       0.00715481       0.02547599     -16.33617367
H       -1.40334890      -1.58435553      -0.22979319      -0.00222362      -0.00596048      -0.00808476     -16.34778347
H        0.97154000      -1.87791731      -0.24881715       0.00057912      -0.00630984      -0.00810664     -16.34778341
H        2.03237099      -0.47769620      -0.41671014       0.00525264      -0.00014216      -0.00884542     -16.34778321
H        1.18683716      -0.76555698       1.11431004      -0.00859472       0.00958508       0.02563569     -16.33617370
H        0.19856263       1.54839324       0.89409002      -0.00083974      -0.00857057       0.02736135     -16.33617356
H        1.09603230       1.71464719      -0.62535804       0.00414488       0.00244802      -0.00909180     -16.34778344
H       -0.65528423       1.93112784      -0.61132470      -0.00356658       0.00340237      -0.00903202     -16.34778325
