3
Properties=species:S:1:pos:R:3:forces:R:3:energies:R:1 energy=-2081.1213561463633 stress="-1.8585188049170784e-07 5.490541232351458e-09 0.0 5.490541232351458e-09 1.0498264591267409e-07 0.0 0.0 0.0 0.0" free_energy=-2081.1213561463633 pbc="F F F"
O        0.00739662       0.38996440       0.00000000      -0.00028770      -0.01538292       0.00000000   -2048.04295843
H       -0.76325177      -0.18057535       0.00000000      -0.01033778       0.00788870       0.00000000     -16.53919887
H        0.75585515      -0.20938905       0.00000000       0.01062548       0.00749422       0.00000000     -16.53919885
